[Molden Format]
made by pyscf v[2.4.0]
[Atoms] (AU)
C   1   6     0.00000000000000     2.63144965668319     0.00000000000000
C   2   6    -2.27890225639802     1.31572483779022     0.00000000000000
C   3   6    -2.27890225639802    -1.31572483779022     0.00000000000000
C   4   6     0.00000000000000    -2.63144965668319     0.00000000000000
C   5   6     2.27890225639802    -1.31572483779022     0.00000000000000
C   6   6     2.27890225639802     1.31572483779022     0.00000000000000
H   7   1    -4.04725813168810     2.33668556484178     0.00000000000000
H   8   1    -4.04725813168810    -2.33668556484178     0.00000000000000
H   9   1     0.00000000000000    -4.67337114858083     0.00000000000000
H   10   1     4.04725813168810    -2.33668556484178     0.00000000000000
H   11   1     4.04725813168810     2.33668556484178     0.00000000000000
H   12   1     0.00000000000000     4.67337114858083     0.00000000000000
[GTO]
1 0
 s    3 1.00
             71.616837    0.15432897000916
             13.045096    0.53532814003178
             3.5305122     0.4446345400264
 s    3 1.00
             2.9412494  -0.099967230075964
             0.6834831    0.39951283030359
             0.2222899    0.70011547053201
 p    3 1.00
             2.9412494    0.15591627210511
             0.6834831    0.60768372820466
             0.2222899    0.39195739529202

2 0
 s    3 1.00
             71.616837    0.15432897000916
             13.045096    0.53532814003178
             3.5305122     0.4446345400264
 s    3 1.00
             2.9412494  -0.099967230075964
             0.6834831    0.39951283030359
             0.2222899    0.70011547053201
 p    3 1.00
             2.9412494    0.15591627210511
             0.6834831    0.60768372820466
             0.2222899    0.39195739529202

3 0
 s    3 1.00
             71.616837    0.15432897000916
             13.045096    0.53532814003178
             3.5305122     0.4446345400264
 s    3 1.00
             2.9412494  -0.099967230075964
             0.6834831    0.39951283030359
             0.2222899    0.70011547053201
 p    3 1.00
             2.9412494    0.15591627210511
             0.6834831    0.60768372820466
             0.2222899    0.39195739529202

4 0
 s    3 1.00
             71.616837    0.15432897000916
             13.045096    0.53532814003178
             3.5305122     0.4446345400264
 s    3 1.00
             2.9412494  -0.099967230075964
             0.6834831    0.39951283030359
             0.2222899    0.70011547053201
 p    3 1.00
             2.9412494    0.15591627210511
             0.6834831    0.60768372820466
             0.2222899    0.39195739529202

5 0
 s    3 1.00
             71.616837    0.15432897000916
             13.045096    0.53532814003178
             3.5305122     0.4446345400264
 s    3 1.00
             2.9412494  -0.099967230075964
             0.6834831    0.39951283030359
             0.2222899    0.70011547053201
 p    3 1.00
             2.9412494    0.15591627210511
             0.6834831    0.60768372820466
             0.2222899    0.39195739529202

6 0
 s    3 1.00
             71.616837    0.15432897000916
             13.045096    0.53532814003178
             3.5305122     0.4446345400264
 s    3 1.00
             2.9412494  -0.099967230075964
             0.6834831    0.39951283030359
             0.2222899    0.70011547053201
 p    3 1.00
             2.9412494    0.15591627210511
             0.6834831    0.60768372820466
             0.2222899    0.39195739529202

7 0
 s    3 1.00
            3.42525091    0.15432897070298
            0.62391373    0.53532814243848
             0.1688554    0.44463454202535

8 0
 s    3 1.00
            3.42525091    0.15432897070298
            0.62391373    0.53532814243848
             0.1688554    0.44463454202535

9 0
 s    3 1.00
            3.42525091    0.15432897070298
            0.62391373    0.53532814243848
             0.1688554    0.44463454202535

10 0
 s    3 1.00
            3.42525091    0.15432897070298
            0.62391373    0.53532814243848
             0.1688554    0.44463454202535

11 0
 s    3 1.00
            3.42525091    0.15432897070298
            0.62391373    0.53532814243848
             0.1688554    0.44463454202535

12 0
 s    3 1.00
            3.42525091    0.15432897070298
            0.62391373    0.53532814243848
             0.1688554    0.44463454202535

[5d]
[7f]
[9g]

[MO]
 Sym= A
 Ene=   -0.6348948282
 Spin= Alpha
 Occup=    1.00000
   1     0.016238377294905
   2    -0.068026028972706
   3     0.045436647189298
   4     0.027896146420952
   5    2.3371828619092e-16
   6     -0.11812040870717
   7      0.34496452764265
   8      -0.4094683565522
   9      0.23640666464754
  10    -4.1009162355249e-16
  11     0.016238376961415
  12    -0.068026028643032
  13    -0.001440447465856
  14    -0.053297364022388
  15    -2.7123225243364e-16
  16    -0.0046837301283791
  17     0.029385305644331
  18     -0.02938104340588
  19     0.009401882485414
  20    1.9768677397359e-17
  21    2.2281924431852e-05
  22    0.0043253552499697
  23    -0.003454650775914
  24    0.0019945435164961
  25    1.6801762034575e-16
  26    -0.0046837301943532
  27     0.029385306098469
  28    -0.022832791250807
  29      0.02074378873982
  30    1.7347736942846e-17
  31      0.53462544854312
  32    -0.032186469404444
  33     -0.01429625201849
  34    0.0025389163184697
  35    -0.014296251963907
  36    -0.032186470056262
 Sym= A
 Ene=    -0.747440037
 Spin= Alpha
 Occup=    1.00000
   1    -0.0040672778747631
   2      0.01768165982494
   3     -0.01644756897123
   4    -0.018946189165288
   5    -3.6155123998052e-17
   6    -0.010189773578503
   7     0.045782764519285
   8    0.0042568898946016
   9    -0.049052146865355
  10    -8.9913854880323e-16
  11      0.13395418796041
  12     -0.36068735201562
  13     -0.36686830959964
  14      0.23029166784437
  15    -3.7530054566689e-16
  16      0.13395418779962
  17     -0.36068735168676
  18       0.3828725905268
  19      -0.2025714407728
  20    -5.7077637441588e-16
  21    -0.010189773725944
  22     0.045782764398275
  23    -0.044608849737032
  24    -0.020839498535872
  25    4.1163492452306e-16
  26    -0.0040672779507228
  27     0.017681660183008
  28    -0.0081840964050304
  29    -0.023717107562528
  30    -1.2657978526926e-16
  31    -0.045602706753526
  32     0.056006447352536
  33     0.056006448063231
  34    -0.045602707498242
  35    -0.0037413316789918
  36    -0.0037413314799397
 Sym= A
 Ene=   -0.6348948282
 Spin= Alpha
 Occup=    1.00000
   1    -0.016238377294899
   2      0.06802602897269
   3     0.045436647189293
   4    -0.027896146420948
   5    1.5677634802535e-16
   6    0.0046837301943579
   7    -0.029385306098481
   8      -0.0228327912508
   9    -0.020743788739828
  10    -2.4007778537482e-16
  11    -2.2281924434119e-05
  12    -0.0043253552499632
  13    -0.0034546507759152
  14    -0.0019945435164949
  15    1.2308908443794e-17
  16    0.0046837301283756
  17    -0.029385305644322
  18    -0.029381043405876
  19    -0.0094018824854118
  20    3.2511493029197e-16
  21    -0.016238376961418
  22     0.068026028643041
  23    -0.0014404474658603
  24     0.053297364022388
  25    -9.832165583136e-17
  26      0.11812040870717
  27     -0.34496452764265
  28     -0.40946835655219
  29     -0.23640666464755
  30    -1.7799686863885e-16
  31     0.014296251963894
  32    -0.0025389163184677
  33     0.014296252018492
  34     0.032186469404443
  35     -0.53462544854311
  36     0.032186470056262
 Sym= A
 Ene=   -0.6348948282
 Spin= Alpha
 Occup=    1.00000
   1    -0.0046837301283739
   2     0.029385305644321
   3     0.029381043405875
   4    -0.0094018824854126
   5    7.9815917982611e-16
   6    2.2281924433253e-05
   7    0.0043253552499666
   8    0.0034546507759163
   9    -0.0019945435164984
  10    3.7932855234089e-16
  11    -0.0046837301943589
  12     0.029385306098473
  13     0.022832791250804
  14    -0.020743788739819
  15    1.553144328319e-16
  16     0.016238377294906
  17    -0.068026028972694
  18    -0.045436647189289
  19    -0.027896146420949
  20    1.7955790572224e-16
  21     -0.11812040870717
  22      0.34496452764265
  23      0.40946835655219
  24     -0.23640666464755
  25    -4.840031863309e-16
  26     0.016238376961421
  27    -0.068026028643046
  28     0.001440447465861
  29     0.053297364022389
  30    -4.9529744034523e-16
  31    0.0025389163184653
  32    -0.014296251963903
  33    -0.032186470056261
  34      0.53462544854311
  35    -0.032186469404442
  36    -0.014296252018494
 Sym= A
 Ene=    -0.747440037
 Spin= Alpha
 Occup=    1.00000
   1     -0.13395418779962
   2      0.36068735168676
   3       0.3828725905268
   4      -0.2025714407728
   5    5.7114029268554e-16
   6     0.010189773725944
   7    -0.045782764398274
   8    -0.044608849737038
   9    -0.020839498535873
  10    5.957096885806e-16
  11    0.0040672779507207
  12    -0.017681660183007
  13    -0.0081840964050272
  14    -0.023717107562529
  15    2.7488093900567e-16
  16    0.0040672778747628
  17    -0.017681659824939
  18    -0.016447568971233
  19    -0.018946189165287
  20    -6.1027620631159e-16
  21     0.010189773578499
  22    -0.045782764519277
  23    0.0042568898946083
  24    -0.049052146865358
  25    -5.5024781582883e-16
  26     -0.13395418796041
  27      0.36068735201562
  28     -0.36686830959964
  29      0.23029166784437
  30    -3.7707127851629e-16
  31     0.045602707498245
  32    0.0037413316789892
  33    0.0037413314799393
  34     0.045602706753535
  35    -0.056006447352539
  36    -0.056006448063229
 Sym= A
 Ene=    -0.747440037
 Spin= Alpha
 Occup=    1.00000
   1    0.0040672778747626
   2    -0.017681659824939
   3    -0.016447568971232
   4     0.018946189165287
   5    6.9087962978204e-17
   6    0.0040672779507235
   7     -0.01768166018301
   8    -0.0081840964050266
   9     0.023717107562526
  10    -6.6620380213484e-16
  11     0.010189773725945
  12    -0.045782764398279
  13    -0.044608849737032
  14     0.020839498535875
  15    -4.0405479711979e-17
  16     -0.13395418779962
  17      0.36068735168676
  18       0.3828725905268
  19       0.2025714407728
  20    3.3016351473237e-17
  21     -0.13395418796041
  22      0.36068735201562
  23     -0.36686830959963
  24     -0.23029166784437
  25    7.2781907767269e-16
  26     0.010189773578501
  27     -0.04578276451928
  28    0.0042568898946075
  29     0.049052146865357
  30    2.8295912975842e-16
  31    0.0037413316789865
  32     0.045602707498238
  33    -0.056006448063228
  34    -0.056006447352537
  35     0.045602706753533
  36    0.0037413314799409
 Sym= A
 Ene=   -0.6348948227
 Spin= Alpha
 Occup=    1.00000
   1    2.2281987031809e-05
   2    0.0043253550800723
   3    -3.6826989045025e-16
   4    -0.0039890870876601
   5    -3.748586468035e-16
   6    -0.0046837302383722
   7     0.029385306368479
   8     -0.00654825248651
   9    -0.030145672326273
  10    -1.3443259359469e-16
  11     0.016238377237667
  12    -0.068026029045309
  13    -0.046877095512311
  14     0.025401217174062
  15    -4.1455719891923e-16
  16     -0.11812040724815
  17      0.34496452555505
  18    -6.3916046914221e-16
  19     -0.47281333302975
  20    -2.3281931939773e-16
  21     0.016238377237667
  22     -0.06802602904531
  23     0.046877095512311
  24     0.025401217174062
  25    -1.8690166508256e-16
  26    -0.0046837302383733
  27     0.029385306368482
  28     0.006548252486512
  29    -0.030145672326272
  30    -2.7134796003808e-16
  31    -0.014296252083521
  32    -0.032186470222139
  33      0.53462545029224
  34    -0.032186470222139
  35    -0.014296252083518
  36    0.0025389165831436
 Sym= A
 Ene=    -0.747440037
 Spin= Alpha
 Occup=    1.00000
   1      0.13395418779962
   2     -0.36068735168676
   3       0.3828725905268
   4      0.20257144077279
   5    4.7852218007563e-16
   6      0.13395418796041
   7     -0.36068735201563
   8     -0.36686830959963
   9     -0.23029166784438
  10    1.0174075040047e-15
  11    -0.010189773578499
  12     0.045782764519279
  13    0.0042568898946074
  14     0.049052146865361
  15    7.7802587579068e-16
  16    -0.0040672778747629
  17     0.017681659824939
  18    -0.016447568971231
  19     0.018946189165287
  20    -1.3637988151626e-16
  21    -0.0040672779507213
  22     0.017681660183008
  23    -0.0081840964050287
  24     0.023717107562528
  25    -1.3256201390825e-16
  26    -0.010189773725947
  27     0.045782764398279
  28    -0.044608849737032
  29     0.020839498535876
  30    -8.9387777158928e-17
  31     0.056006447352527
  32    -0.045602706753534
  33    -0.0037413314799392
  34     -0.00374133167899
  35    -0.045602707498238
  36     0.056006448063231
 Sym= A
 Ene=   -0.6348948282
 Spin= Alpha
 Occup=    1.00000
   1    0.0046837301283739
   2    -0.029385305644321
   3     0.029381043405877
   4    0.0094018824854126
   5    2.8553944339132e-16
   6    -0.016238376961421
   7     0.068026028643046
   8    0.0014404474658594
   9    -0.053297364022388
  10    7.6849229753215e-17
  11      0.11812040870717
  12     -0.34496452764265
  13      0.40946835655219
  14      0.23640666464755
  15    -2.5182720452449e-16
  16    -0.016238377294905
  17     0.068026028972693
  18    -0.045436647189293
  19     0.027896146420947
  20    1.707997766878e-17
  21      0.00468373019436
  22    -0.029385306098476
  23     0.022832791250807
  24     0.020743788739821
  25    -5.0603136697409e-16
  26    -2.2281924433637e-05
  27    -0.0043253552499656
  28     0.003454650775915
  29    0.0019945435164973
  30    -5.2230128161234e-16
  31     0.032186469404444
  32     -0.53462544854311
  33      0.03218647005626
  34     0.014296251963905
  35    -0.0025389163184672
  36     0.014296252018493
 Sym= A
 Ene=   -0.6348948227
 Spin= Alpha
 Occup=    1.00000
   1      0.11812040724814
   2     -0.34496452555505
   3    -3.8805571970458e-16
   4     -0.47281333302975
   5    2.7436890400446e-17
   6    -0.016238377237659
   7     0.068026029045306
   8     0.046877095512313
   9     0.025401217174059
  10    -2.1886282352166e-16
  11    0.0046837302383696
  12    -0.029385306368481
  13    0.0065482524865113
  14     -0.03014567232627
  15    -2.4832683926353e-16
  16    -2.228198703022e-05
  17    -0.0043253550800742
  18    1.2087567431409e-15
  19    -0.0039890870876616
  20    -2.3571885812167e-16
  21    0.0046837302383699
  22    -0.029385306368482
  23    -0.0065482524865126
  24    -0.030145672326271
  25    -4.2145369786407e-16
  26     -0.01623837723766
  27     0.068026029045309
  28    -0.046877095512312
  29     0.025401217174061
  30    -3.4918492609969e-16
  31     0.032186470222133
  32     0.014296252083517
  33    -0.0025389165831438
  34     0.014296252083516
  35     0.032186470222137
  36     -0.53462545029224
 Sym= A
 Ene=   -0.3397052663
 Spin= Alpha
 Occup=    1.00000
   1    8.5922675666784e-17
   2    -1.2538415549298e-16
   3    -4.2957290625041e-16
   4    4.8302073150109e-16
   5    -0.024176101721434
   6    1.0216850163311e-16
   7    1.2963047638642e-16
   8    -4.3873244321548e-17
   9    4.1069626744494e-16
  10     -0.24118545039288
  11    4.9405135283704e-16
  12    -6.912942535451e-16
  13    -5.1564100411617e-16
  14    -4.334239449969e-16
  15    -0.024176099196306
  16    -9.9997570308663e-17
  17    2.0355094830751e-16
  18    2.8254089762894e-17
  19    4.3799022834089e-16
  20      0.40984259854391
  21    -3.6126431162834e-16
  22    7.8512455993985e-16
  23    -6.9549178885032e-16
  24    1.1257271623806e-16
  25      0.62685194454624
  26    3.4263532987592e-16
  27    -8.4864173196792e-16
  28    4.6543767306202e-16
  29    -5.9780082897126e-16
  30      0.40984259334967
  31    -7.483994738857e-17
  32    7.1777591646584e-16
  33    -3.2870723993943e-16
  34    -4.1835674096651e-16
  35    1.5583135110482e-16
  36    4.489668053642e-16
 Sym= A
 Ene=   -0.7474400292
 Spin= Alpha
 Occup=    1.00000
   1     0.010189773809064
   2    -0.045782764909151
   3     0.040351960937207
   4     0.028212647738246
   5    -2.4534778178865e-16
   6     -0.13395418634272
   7      0.36068735072648
   8    -0.016004280637859
   9     -0.43286311251194
  10    -1.301362831963e-16
  11     -0.13395418634272
  12      0.36068735072647
  13     -0.01600428063786
  14      0.43286311251194
  15    -9.8997991682503e-17
  16     0.010189773809063
  17    -0.045782764909152
  18     0.040351960937204
  19    -0.028212647738245
  20    -3.9592877522142e-16
  21    0.0040672779327733
  22    -0.017681660288369
  23     0.024631665949804
  24    0.0047709183384571
  25    -7.9478851366027e-17
  26    0.0040672779327722
  27    -0.017681660288372
  28     0.024631665949803
  29    -0.0047709183384588
  30    -9.31826857678e-16
  31    -0.056006448755311
  32    -0.056006448755308
  33     0.045602708334213
  34    0.0037413314683772
  35     0.003741331468374
  36     0.045602708334212
 Sym= A
 Ene=   -0.7474400292
 Spin= Alpha
 Occup=    1.00000
   1     0.010189773809064
   2     -0.04578276490915
   3    -0.040351960937205
   4     0.028212647738246
   5    1.7109919560903e-16
   6     0.004067277932772
   7    -0.017681660288372
   8    -0.024631665949802
   9    -0.0047709183384581
  10    -1.0746885188727e-16
  11    0.0040672779327731
  12    -0.017681660288369
  13    -0.024631665949804
  14    0.0047709183384576
  15    -7.0175605647924e-16
  16     0.010189773809063
  17    -0.045782764909151
  18    -0.040351960937205
  19    -0.028212647738246
  20    4.329839413682e-17
  21     -0.13395418634272
  22      0.36068735072647
  23     0.016004280637859
  24      0.43286311251194
  25    2.9255100693872e-16
  26     -0.13395418634272
  27      0.36068735072647
  28     0.016004280637862
  29     -0.43286311251194
  30    1.2614164819501e-15
  31     0.003741331468376
  32    0.0037413314683771
  33     0.045602708334212
  34    -0.056006448755308
  35    -0.056006448755306
  36     0.045602708334212
 Sym= A
 Ene=   -0.3397052695
 Spin= Alpha
 Occup=    1.00000
   1    -3.1929018027077e-17
   2    -2.8895916327622e-16
   3    -1.6271949098894e-15
   4    6.8673308556639e-16
   5      0.62685194382493
   6    -1.8140774802095e-16
   7    2.5811443136711e-16
   8    -6.630137867546e-16
   9    1.8470360649503e-16
  10      0.40984259576549
  11    8.4525648960508e-17
  12    -3.107194484121e-16
  13    3.9706777127702e-16
  14    -3.2732389804776e-18
  15    -0.024176099586321
  16    1.6566664225038e-17
  17    -2.0133057196306e-16
  18    -2.2319602394906e-16
  19    7.3770198868281e-16
  20      -0.2411854426231
  21    -4.5726409977833e-16
  22    8.2481975434002e-16
  23    5.059162755191e-16
  24    7.7102082501114e-17
  25    -0.024176097232774
  26    2.5818754957225e-16
  27    -6.8896501240433e-17
  28    -3.8023022155426e-17
  29    1.9148648518196e-16
  30      0.40984259811904
  31    -8.8110348753796e-16
  32    5.8391284860328e-16
  33    2.3881099541964e-16
  34    -2.7794061085495e-16
  35    -3.2304603635918e-16
  36    2.9680599081093e-16
 Sym= A
 Ene=   -0.3397052664
 Spin= Alpha
 Occup=    1.00000
   1    -1.7248071402813e-16
   2    -9.605090419406e-18
   3    5.0468329966382e-16
   4    5.3885452953151e-16
   5    -0.024176099381288
   6    -1.0829533161635e-16
   7    -2.9155628922003e-16
   8    -2.4394687609078e-16
   9    -6.325166349727e-16
  10      0.40984259556951
  11    -8.2403589918097e-16
  12    1.6616290755465e-15
  13    3.6710465615798e-16
  14    9.5777291516717e-16
  15      0.62685194453284
  16    5.2063104145974e-18
  17    -5.1863323659021e-16
  18    -3.2176776704454e-16
  19    3.5258998675391e-16
  20      0.40984259641758
  21    1.838155004001e-16
  22    -5.8968793634777e-16
  23    -3.5747058383746e-18
  24    -6.584030748019e-16
  25    -0.024176101202329
  26    2.6003685212123e-17
  27    2.2187422195645e-16
  28    -2.7972579422662e-16
  29    3.3867721491847e-16
  30     -0.24118545016566
  31    -1.2674208404008e-16
  32    -8.4122559240104e-16
  33    -4.0114232628675e-17
  34    8.3797305386363e-16
  35    -7.8363285688724e-17
  36    1.9696808545135e-18
