[Molden Format]
made by pyscf v[2.4.0]
[Atoms] (AU)
C   1   6     0.00000000000000     2.63144965668319     0.00000000000000
C   2   6    -2.27890225639802     1.31572483779022     0.00000000000000
C   3   6    -2.27890225639802    -1.31572483779022     0.00000000000000
C   4   6     0.00000000000000    -2.63144965668319     0.00000000000000
C   5   6     2.27890225639802    -1.31572483779022     0.00000000000000
C   6   6     2.27890225639802     1.31572483779022     0.00000000000000
H   7   1    -4.04725813168810     2.33668556484178     0.00000000000000
H   8   1    -4.04725813168810    -2.33668556484178     0.00000000000000
H   9   1     0.00000000000000    -4.67337114858083     0.00000000000000
H   10   1     4.04725813168810    -2.33668556484178     0.00000000000000
H   11   1     4.04725813168810     2.33668556484178     0.00000000000000
H   12   1     0.00000000000000     4.67337114858083     0.00000000000000
[GTO]
1 0
 s    3 1.00
             71.616837    0.15432897000916
             13.045096    0.53532814003178
             3.5305122     0.4446345400264
 s    3 1.00
             2.9412494  -0.099967230075964
             0.6834831    0.39951283030359
             0.2222899    0.70011547053201
 p    3 1.00
             2.9412494    0.15591627210511
             0.6834831    0.60768372820466
             0.2222899    0.39195739529202

2 0
 s    3 1.00
             71.616837    0.15432897000916
             13.045096    0.53532814003178
             3.5305122     0.4446345400264
 s    3 1.00
             2.9412494  -0.099967230075964
             0.6834831    0.39951283030359
             0.2222899    0.70011547053201
 p    3 1.00
             2.9412494    0.15591627210511
             0.6834831    0.60768372820466
             0.2222899    0.39195739529202

3 0
 s    3 1.00
             71.616837    0.15432897000916
             13.045096    0.53532814003178
             3.5305122     0.4446345400264
 s    3 1.00
             2.9412494  -0.099967230075964
             0.6834831    0.39951283030359
             0.2222899    0.70011547053201
 p    3 1.00
             2.9412494    0.15591627210511
             0.6834831    0.60768372820466
             0.2222899    0.39195739529202

4 0
 s    3 1.00
             71.616837    0.15432897000916
             13.045096    0.53532814003178
             3.5305122     0.4446345400264
 s    3 1.00
             2.9412494  -0.099967230075964
             0.6834831    0.39951283030359
             0.2222899    0.70011547053201
 p    3 1.00
             2.9412494    0.15591627210511
             0.6834831    0.60768372820466
             0.2222899    0.39195739529202

5 0
 s    3 1.00
             71.616837    0.15432897000916
             13.045096    0.53532814003178
             3.5305122     0.4446345400264
 s    3 1.00
             2.9412494  -0.099967230075964
             0.6834831    0.39951283030359
             0.2222899    0.70011547053201
 p    3 1.00
             2.9412494    0.15591627210511
             0.6834831    0.60768372820466
             0.2222899    0.39195739529202

6 0
 s    3 1.00
             71.616837    0.15432897000916
             13.045096    0.53532814003178
             3.5305122     0.4446345400264
 s    3 1.00
             2.9412494  -0.099967230075964
             0.6834831    0.39951283030359
             0.2222899    0.70011547053201
 p    3 1.00
             2.9412494    0.15591627210511
             0.6834831    0.60768372820466
             0.2222899    0.39195739529202

7 0
 s    3 1.00
            3.42525091    0.15432897070298
            0.62391373    0.53532814243848
             0.1688554    0.44463454202535

8 0
 s    3 1.00
            3.42525091    0.15432897070298
            0.62391373    0.53532814243848
             0.1688554    0.44463454202535

9 0
 s    3 1.00
            3.42525091    0.15432897070298
            0.62391373    0.53532814243848
             0.1688554    0.44463454202535

10 0
 s    3 1.00
            3.42525091    0.15432897070298
            0.62391373    0.53532814243848
             0.1688554    0.44463454202535

11 0
 s    3 1.00
            3.42525091    0.15432897070298
            0.62391373    0.53532814243848
             0.1688554    0.44463454202535

12 0
 s    3 1.00
            3.42525091    0.15432897070298
            0.62391373    0.53532814243848
             0.1688554    0.44463454202535

[5d]
[7f]
[9g]

[MO]
 Sym= A
 Ene=   -0.7593197061
 Spin= Alpha
 Occup=    1.00000
   1     -0.01041399603248
   2     0.046880461000526
   3      0.03880564872141
   4    -0.021784088280586
   5    -0.029446657733039
   6    -0.0041170355164514
   7     0.017620921701403
   8     0.019163125565968
   9    0.0082485643297409
  10    -0.014099974636549
  11    -0.0044129856753232
  12     0.018501640843226
  13     0.020030661623924
  14    -0.0088061067403221
  15     0.014938409071192
  16    -0.0099403146520725
  17     0.045623065965518
  18     0.035955962559593
  19     0.021007820539741
  20     0.028630109397718
  21      0.13702548622611
  22     -0.36871896457396
  23    -0.018196639013635
  24     -0.42355704776319
  25      0.01328342630688
  26      0.13608875442128
  27     -0.36602158077352
  28    -0.019880863797775
  29      0.42481677967885
  30    -0.015754957400861
  31    0.0010678221970562
  32    0.0006670329469104
  33    -0.038973298376702
  34     0.047163921708786
  35     0.047106518778025
  36    -0.039223027609803
 Sym= A
 Ene=   -0.7216491803
 Spin= Alpha
 Occup=    1.00000
   1     0.004780138505584
   2    -0.018908532899366
   3     0.019011981210387
   4     0.013228011066463
   5    0.0061526175715514
   6     0.018259748637007
   7    -0.067479398389643
   8    -0.0014423130458081
   9      0.06509598485923
  10    0.0014631999208311
  11     -0.12533630005872
  12      0.33791887735353
  13       0.3771861110525
  14     -0.24599811694397
  15     -0.01426443873629
  16     -0.12853362091833
  17      0.34676307943532
  18     -0.39314801191486
  19      0.21074044453927
  20    -0.025302659588479
  21     0.013982130025759
  22    -0.055621970033612
  23     0.047212683315891
  24     0.027409946364347
  25    -0.020613241805225
  26    0.0042591056397582
  27    -0.017767116646543
  28    0.0012290683939586
  29     0.022459411360193
  30    -0.0048856031481047
  31     0.044836824893869
  32    -0.064411561488285
  33    -0.068461157414025
  34     0.043298199764419
  35    -0.0018140026056325
  36    -0.0023398845885174
 Sym= A
 Ene=   -0.5657271588
 Spin= Alpha
 Occup=    1.00000
   1    -0.0036524819406093
   2    -0.0037202202404564
   3    0.0080950416881537
   4    -0.00075277389017875
   5      0.14619980296187
   6     -0.10498919818518
   7      0.28221173990258
   8     0.009507427447229
   9     -0.28194861714778
  10      0.40614340982944
  11     -0.09743992253017
  12      0.26048745582683
  13    0.0081192336152166
  14      0.29068953137996
  15      0.39897574229748
  16    0.0042537927526591
  17    -0.024611152106545
  18    0.0077915162063472
  19    -0.011691438718859
  20      0.13186446796822
  21    0.0065560433388944
  22    -0.023862192589766
  23     0.021272188056333
  24    0.0053156854418002
  25     -0.12807914082378
  26     0.003095040041157
  27    -0.014306720538067
  28     0.010225652403538
  29    -0.001800536370219
  30     -0.12091147329182
  31    -0.032665515650138
  32    -0.043741357566926
  33     0.027094532582571
  34    0.0033735185370623
  35    -0.00048668206483053
  36     0.023292637849585
 Sym= A
 Ene=     -0.76596087
 Spin= Alpha
 Occup=    1.00000
   1    -0.085168575081219
   2      0.21416313667716
   3     -0.24910189381366
   4     -0.12200266661348
   5      0.01011698109428
   6     -0.16479226132444
   7      0.46197923517984
   8    -0.020464124880427
   9      0.36930709170412
  10     0.005687861384955
  11     0.030765285348598
  12     -0.11290704529358
  13    0.0016675182587528
  14     -0.11241785566654
  15    -9.7421836418563e-05
  16    -0.0028639175838176
  17     0.016228592086704
  18    -0.011621805559844
  19    0.0022767289886025
  20    -0.0014535852917418
  21    0.00097735139721591
  22    -0.0035356303441155
  23    -0.0045563603946088
  24     -0.01331037777353
  25    0.0029755343576257
  26    0.0049838954711506
  27     -0.01484963403338
  28     0.014808943736186
  29    -0.0056159164683898
  30    0.0087608175789993
  31      0.33571124787019
  32     0.013026369200305
  33    -0.015185008198988
  34    0.00036671851293751
  35     0.019577309929932
  36    -0.061054966373797
 Sym= A
 Ene=   -0.6373169233
 Spin= Alpha
 Occup=    1.00000
   1    0.0023653355526768
   2    -0.010157426796637
   3    -0.00029943457088398
   4    0.0072652102230846
   5    0.0007538246722265
   6    0.0067045942246931
   7    -0.034111933814373
   8    0.0037395519370945
   9     0.030506871681658
  10    0.0010265221266088
  11    -0.012066928384025
  12     0.057143057888783
  13     0.038206981381223
  14     -0.02263682758952
  15    -0.00061337460101378
  16      0.12062576023834
  17     -0.35135855292305
  18     0.010828704749926
  19      0.46915988300925
  20    -0.0025259687669393
  21     -0.01645370196013
  22      0.06952580707128
  23    -0.047466448036148
  24    -0.032324173374047
  25    -0.002798666209057
  26    0.0074334940170411
  27    -0.036600037115628
  28    -0.0037060986606784
  29     0.032709818867823
  30    -0.0011587694814344
  31     0.013774135381616
  32     0.033696865182935
  33     -0.53434301006372
  34     0.034131207336008
  35     0.014932235000895
  36    -0.0022887977659992
 Sym= A
 Ene=   -0.6312156505
 Spin= Alpha
 Occup=    1.00000
   1     -0.11707213142014
   2      0.34188186707193
   3    0.0016600529784823
   4      0.47470855406464
   5    -0.0031401226548122
   6     0.016404823499521
   7    -0.068999824828297
   8    -0.047441315871817
   9     -0.03171458980673
  10    -0.00087879664716366
  11    -0.0073486939046232
  12     0.036507599475496
  13    -0.0038273649623706
  14     0.033136806468606
  15    0.0011238592754048
  16    -0.0023937423673015
  17     0.010299986043736
  18    2.9912417448358e-05
  19    0.0074583811508547
  20    0.00086518917068858
  21    -0.0075071408658419
  22     0.036919833434379
  23    0.0037113658414525
  24       0.0332093585231
  25    -0.0013961368212156
  26     0.015782381936344
  27    -0.067258002603772
  28     0.045329153789724
  29    -0.031057302903379
  30    -0.0033987927437841
  31    -0.034604158549754
  32    -0.015023577015882
  33    0.0024908950196922
  34    -0.014795510124749
  35    -0.035489013682982
  36      0.53624040564199
 Sym= A
 Ene=   -0.6399249504
 Spin= Alpha
 Occup=    1.00000
   1    0.0072084019743523
   2    -0.035648574973744
   3     0.029650217338083
   4     0.012861405847462
   5    8.0839958501568e-05
   6    -0.014080819014751
   7     0.063008344279727
   8    -0.0028988873470101
   9    -0.051600315969383
  10    -0.0002443895474414
  11      0.12216260393189
  12     -0.35539926320225
  13      0.40219088805202
  14       0.2371444265848
  15    -3.7401997762957e-05
  16    -0.012464268502821
  17     0.058431519716696
  18    -0.040711113078195
  19     0.022317726184813
  20    0.00049481505582892
  21    0.0067576030548719
  22    -0.034213532852393
  23     0.024896316731786
  24     0.018707326330843
  25    0.00082004455778791
  26    0.0022945536919241
  27    -0.0099266092336075
  28    0.0061257707045694
  29    0.0033671815292248
  30    0.00061305700810947
  31     0.033471043288516
  32     -0.53367700112256
  33     0.033163647332165
  34      0.01408727077524
  35    -0.0024006034387894
  36     0.014564618604112
 Sym= A
 Ene=    -0.582372684
 Spin= Alpha
 Occup=    1.00000
   1     -0.10268944565028
   2      0.29529806986918
   3     -0.30546325636217
   4     -0.15805765431565
   5    0.0088208142291445
   6    0.0006981938139877
   7    -0.020784114240017
   8       0.5500822527646
   9     0.015184925887544
  10    0.0051990495184563
  11    0.0053167159128813
  12    -0.0093830215562268
  13    0.0012322750208325
  14    -0.018795884184735
  15    -3.5362319075444e-05
  16    0.0074379146147964
  17    -0.035234201463756
  18     0.030544462559525
  19    -0.016547819891607
  20    -0.001648009394595
  21    0.0047441411019848
  22     -0.01971858053543
  23    0.0055660930041076
  24    -0.018086513688533
  25    0.0019737552664518
  26     0.014260945658408
  27    -0.062765739565228
  28     0.049477360137039
  29    -0.031281874740166
  30    0.0072081671039835
  31     -0.42107909782817
  32     0.053688093193516
  33    0.0074743938997718
  34    -0.0024689070233733
  35     0.039719815124368
  36    -0.016825267661842
 Sym= A
 Ene=   -0.5559326454
 Spin= Alpha
 Occup=    1.00000
   1    -0.0060014642107064
   2      0.03197312578625
   3      0.02429576016629
   4    -0.014203510479645
   5    -0.046944496761146
   6    -0.0054492474808362
   7     0.021943854936999
   8    0.0079200628425462
   9    -0.016118436523058
  10    -0.062134671044463
  11    -0.012349942971789
  12     0.056589060749468
  13     0.043282518212136
  14    -0.026633290212536
  15     0.049963819234361
  16     0.093389406113656
  17     -0.26910953237323
  18     -0.26973791551015
  19     -0.14379721491894
  20      0.17725248269737
  21    -0.0032096320108754
  22     0.027995476335194
  23      0.51995482096874
  24    -0.024896743986877
  25      0.19244265607885
  26     0.005369695166773
  27    -0.020739249291559
  28    0.0053531266139753
  29    0.0041439115730116
  30     0.080344165800025
  31    0.0011806228452152
  32    -0.035824862875407
  33     0.011399148621517
  34      0.41723938163996
  35    -0.047696951792129
  36    -0.0088021695383747
 Sym= A
 Ene=   -0.5499602829
 Spin= Alpha
 Occup=    1.00000
   1     0.091088259898998
   2     -0.26283679628577
   3     -0.26219362437149
   4      0.14113549005726
   5     -0.19262332533713
   6    -0.011900484542068
   7     0.054984621510405
   8     0.042324623750585
   9     0.024933240279784
  10    -0.051070199777338
  11    -0.0056139319712463
  12     0.022375635227967
  13    0.0081886804192293
  14     0.016358847932483
  15     0.069545220331737
  16    -0.0057643083788459
  17     0.031199339075273
  18     0.023274731852133
  19     0.013750194652307
  20     0.048607513698376
  21    0.0058680712287302
  22     -0.02238209881178
  23    0.0059314879869599
  24    -0.004737712753915
  25    -0.092945610864712
  26    -0.0053772458338357
  27     0.033807247560852
  28      0.51314454404109
  29     0.028947326236267
  30     -0.21356103097379
  31    -0.035729261161895
  32    0.00080710098445974
  33    -0.0086930794617412
  34    -0.046874798785619
  35      0.41565419300021
  36      0.01129667300843
 Sym= A
 Ene=   -0.4411913669
 Spin= Alpha
 Occup=    1.00000
   1    0.0088334955828805
   2    -0.027683416705187
   3     -0.02309262715923
   4     0.016795426519769
   5     -0.17753557476364
   6    0.0027447027452683
   7    -0.010816806490346
   8    -0.00097734611050126
   9     0.011734529354609
  10     -0.16090097695734
  11    -0.001360788791906
  12    -0.0047326806846425
  13    -0.0023064637502646
  14    0.0019119639459237
  15      0.18070752641138
  16    -0.069616315788426
  17      0.18674199148232
  18      0.16404313846888
  19       0.1073853135712
  20       0.5056814286243
  21    -0.069397728058588
  22      0.18706676956512
  23     -0.16736682359454
  24    -0.098287733326594
  25      0.48904682854697
  26    0.0072512147753948
  27    -0.028987879854763
  28     0.017573496187835
  29    0.0033911676899979
  30      0.14743832517825
  31    -0.00064281554203349
  32     0.016840156135532
  33    -0.030064215683212
  34    -0.020423154744782
  35     0.021838384293036
  36    0.0028945171475877
 Sym= A
 Ene=   -0.4588896584
 Spin= Alpha
 Occup=    1.00000
   1     -0.07316141241741
   2      0.19616338851577
   3      0.18859353170391
   4     -0.11325812194305
   5     -0.48455197896783
   6    0.0015177817599166
   7    -0.013327357521274
   8    -0.011964945193428
   9    -0.0059325028804495
  10     -0.16351110297461
  11    0.0028209210720124
  12    -0.011121176405024
  13    -0.00087346529992971
  14    -0.012848340602265
  15      0.16063030337203
  16    0.0085587180420488
  17    -0.027141463669743
  18    -0.024150642428014
  19    -0.016477602980491
  20      0.16373083054723
  21    0.0070172689336604
  22    -0.029087849078156
  23     0.016747809136141
  24    -0.0041721401843213
  25     -0.15731004322566
  26    -0.076090548693893
  27      0.20542913973205
  28     -0.18540134030114
  29      0.10793257374998
  30      -0.4814514495723
  31     0.021254462161898
  32    -0.0013052526141577
  33    0.0026667573499752
  34     0.023435448987928
  35    -0.024274450324315
  36     -0.03203440611877
 Sym= A
 Ene=   -0.7246202874
 Spin= Alpha
 Occup=    1.00000
   1    -0.0040892853032631
   2      0.01898248848094
   3     0.018268326500135
   4    -0.0043697627986256
   5     0.052987881215699
   6    0.0017297930671404
   7    -0.0059609695489253
   8    0.0017061305175925
   9     0.010351187624607
  10     0.065754015115294
  11    0.0021981688688588
  12    -0.0060869670002747
  13    -0.0068281358834073
  14    0.00015416634205509
  15    -0.057561527902963
  16    -0.074427014591123
  17      0.18391148726779
  18      0.20565795018439
  19      0.10477814646369
  20     -0.19364320361169
  21      -0.1611321390104
  22      0.45170293435976
  23     0.056492910729465
  24     -0.32257146900746
  25     -0.20640933653785
  26     0.019704910429772
  27     -0.08161577743758
  28    -0.0072444448167919
  29     0.084826407162264
  30    -0.083093793519589
  31    0.0017496265396434
  32     0.014874958189264
  33    -0.054058045412015
  34      0.34030859071025
  35    0.0036281787014575
  36    -0.013313457990116
 Sym= A
 Ene=    -0.713014003
 Spin= Alpha
 Occup=    1.00000
   1    -0.071856162494091
   2      0.17688191314012
   3      0.19708832307573
   4     -0.10167328991069
   5      0.20823767069698
   6    0.0016703406421056
   7    -0.004239615267441
   8    -0.0056851765890015
   9    0.0016119680951583
  10     0.058416936542441
  11    0.0018727013675276
  12    -0.0063393683281189
  13    0.0015388217745245
  14    -0.010496527859716
  15    -0.072951722951143
  16    -0.0043761630054554
  17     0.019874143360629
  18     0.019287457860647
  19    0.0048891031250972
  20    -0.054499647002103
  21     0.018940321972934
  22    -0.079219628388553
  23    -0.0077857615189147
  24    -0.083622039153845
  25     0.095321086088451
  26     -0.15885133416007
  27      0.44556890601047
  28     0.064187843749355
  29      0.31742743526064
  30      0.22668974558204
  31     0.014668309165846
  32    0.0020442182963958
  33     -0.01337478063074
  34    0.0027433839063648
  35      0.34198724819297
  36    -0.053771804442693
 Sym= A
 Ene=   -0.5660295993
 Spin= Alpha
 Occup=    1.00000
   1    -0.0011140272983383
   2    -0.010808943744591
   3    -0.0068854215840177
   4    0.0033701340273651
   5     -0.14090675733814
   6      -0.1068761969772
   7      0.28791942711725
   8     0.013957379877493
   9     -0.27993807897917
  10     -0.40257623363696
  11    -0.095542661051599
  12      0.25486296358594
  13    0.0014271353537005
  14      0.29556633095752
  15     -0.40009610662584
  16    0.0024222196024237
  17    -0.019459425142185
  18     0.024768370106276
  19    -0.0087340403585149
  20     -0.13594650334022
  21    0.0029788979252965
  22    -0.013699839347856
  23    0.0093171617944754
  24    0.00031020328717279
  25      0.12572297487464
  26    0.0066374234854835
  27    -0.024253750859457
  28     0.022240286897323
  29    -0.0065370916828281
  30      0.12324284786352
  31    -0.035045145861493
  32    -0.041113704998659
  33     0.026450746039113
  34    -0.0018325441606137
  35    0.0047401566571155
  36     0.024401634555667
