[Molden Format]
made by pyscf v[2.4.0]
[Atoms] (AU)
C   1   6     0.00000000000000     2.63144965668319     0.00000000000000
C   2   6    -2.27890225639802     1.31572483779022     0.00000000000000
C   3   6    -2.27890225639802    -1.31572483779022     0.00000000000000
C   4   6     0.00000000000000    -2.63144965668319     0.00000000000000
C   5   6     2.27890225639802    -1.31572483779022     0.00000000000000
C   6   6     2.27890225639802     1.31572483779022     0.00000000000000
H   7   1    -4.04725813168810     2.33668556484178     0.00000000000000
H   8   1    -4.04725813168810    -2.33668556484178     0.00000000000000
H   9   1     0.00000000000000    -4.67337114858083     0.00000000000000
H   10   1     4.04725813168810    -2.33668556484178     0.00000000000000
H   11   1     4.04725813168810     2.33668556484178     0.00000000000000
H   12   1     0.00000000000000     4.67337114858083     0.00000000000000
[GTO]
1 0
 s    3 1.00
             71.616837    0.15432897000916
             13.045096    0.53532814003178
             3.5305122     0.4446345400264
 s    3 1.00
             2.9412494  -0.099967230075964
             0.6834831    0.39951283030359
             0.2222899    0.70011547053201
 p    3 1.00
             2.9412494    0.15591627210511
             0.6834831    0.60768372820466
             0.2222899    0.39195739529202

2 0
 s    3 1.00
             71.616837    0.15432897000916
             13.045096    0.53532814003178
             3.5305122     0.4446345400264
 s    3 1.00
             2.9412494  -0.099967230075964
             0.6834831    0.39951283030359
             0.2222899    0.70011547053201
 p    3 1.00
             2.9412494    0.15591627210511
             0.6834831    0.60768372820466
             0.2222899    0.39195739529202

3 0
 s    3 1.00
             71.616837    0.15432897000916
             13.045096    0.53532814003178
             3.5305122     0.4446345400264
 s    3 1.00
             2.9412494  -0.099967230075964
             0.6834831    0.39951283030359
             0.2222899    0.70011547053201
 p    3 1.00
             2.9412494    0.15591627210511
             0.6834831    0.60768372820466
             0.2222899    0.39195739529202

4 0
 s    3 1.00
             71.616837    0.15432897000916
             13.045096    0.53532814003178
             3.5305122     0.4446345400264
 s    3 1.00
             2.9412494  -0.099967230075964
             0.6834831    0.39951283030359
             0.2222899    0.70011547053201
 p    3 1.00
             2.9412494    0.15591627210511
             0.6834831    0.60768372820466
             0.2222899    0.39195739529202

5 0
 s    3 1.00
             71.616837    0.15432897000916
             13.045096    0.53532814003178
             3.5305122     0.4446345400264
 s    3 1.00
             2.9412494  -0.099967230075964
             0.6834831    0.39951283030359
             0.2222899    0.70011547053201
 p    3 1.00
             2.9412494    0.15591627210511
             0.6834831    0.60768372820466
             0.2222899    0.39195739529202

6 0
 s    3 1.00
             71.616837    0.15432897000916
             13.045096    0.53532814003178
             3.5305122     0.4446345400264
 s    3 1.00
             2.9412494  -0.099967230075964
             0.6834831    0.39951283030359
             0.2222899    0.70011547053201
 p    3 1.00
             2.9412494    0.15591627210511
             0.6834831    0.60768372820466
             0.2222899    0.39195739529202

7 0
 s    3 1.00
            3.42525091    0.15432897070298
            0.62391373    0.53532814243847
             0.1688554    0.44463454202535

8 0
 s    3 1.00
            3.42525091    0.15432897070298
            0.62391373    0.53532814243847
             0.1688554    0.44463454202535

9 0
 s    3 1.00
            3.42525091    0.15432897070298
            0.62391373    0.53532814243847
             0.1688554    0.44463454202535

10 0
 s    3 1.00
            3.42525091    0.15432897070298
            0.62391373    0.53532814243847
             0.1688554    0.44463454202535

11 0
 s    3 1.00
            3.42525091    0.15432897070298
            0.62391373    0.53532814243847
             0.1688554    0.44463454202535

12 0
 s    3 1.00
            3.42525091    0.15432897070298
            0.62391373    0.53532814243847
             0.1688554    0.44463454202535

[5d]
[7f]
[9g]

[MO]
 Sym= B2u
 Ene=    -11.02912184
 Spin= Alpha
 Occup=    2.00000
   1                     0
   2                     0
   3    0.0037788977469329
   4    2.3139075150433e-19
   5                     0
   6        0.496252157599
   7      0.01459720769442
   8    0.00054170084640783
   9    0.0018689965181929
  10                     0
  11        0.496252157599
  12      0.01459720769442
  13    0.00054170084640783
  14    -0.0018689965181929
  15                     0
  16                     0
  17                     0
  18    0.0037788977469329
  19    2.3139075150433e-19
  20                     0
  21       -0.496252157599
  22     -0.01459720769442
  23    0.00054170084640783
  24    0.0018689965181929
  25                     0
  26       -0.496252157599
  27     -0.01459720769442
  28    0.00054170084640783
  29    -0.0018689965181929
  30                     0
  31    -0.003312181533319
  32    -0.003312181533319
  33                     0
  34     0.003312181533319
  35     0.003312181533319
  36                     0
 Sym= B3u
 Ene=    -11.02912184
 Spin= Alpha
 Occup=    2.00000
   1      0.57302272169296
   2     0.016855408111304
   3    -3.2904066983403e-20
   4    0.00053736419359954
   5                     0
   6      0.28651122861624
   7    0.0084276971345023
   8    -0.0018689969526966
   9    -0.0026998317920296
  10                     0
  11     -0.28651122861624
  12    -0.0084276971345023
  13    0.0018689969526966
  14    -0.0026998317920296
  15                     0
  16     -0.57302272169296
  17    -0.016855408111304
  18    -3.2904066983403e-20
  19    0.00053736419359954
  20                     0
  21     -0.28651122861624
  22    -0.0084276971345023
  23    -0.0018689969526966
  24    -0.0026998317920296
  25                     0
  26      0.28651122861624
  27    0.0084276971345023
  28    0.0018689969526966
  29    -0.0026998317920296
  30                     0
  31    -0.0019122882562173
  32    0.0019122882562173
  33    0.0038245783856728
  34    0.0019122882562173
  35    -0.0019122882562173
  36    -0.0038245783856728
 Sym= Ag
 Ene=    -11.02910196
 Spin= Alpha
 Occup=    2.00000
   1      0.40540803491245
   2    0.0092138806002359
   3    -9.4709531600812e-20
   4    0.0015467240296019
   5                     0
   6      0.40540770197467
   7    0.0092138660906385
   8    -0.0013395039711176
   9    0.00077336148680118
  10                     0
  11      0.40540770197467
  12    0.0092138660906385
  13    -0.0013395039711176
  14    -0.00077336148680118
  15                     0
  16      0.40540803491245
  17    0.0092138806002359
  18    9.4709531600812e-20
  19    -0.0015467240296019
  20                     0
  21      0.40540770197467
  22    0.0092138660906385
  23    0.0013395039711176
  24    -0.00077336148680118
  25                     0
  26      0.40540770197467
  27    0.0092138660906385
  28    0.0013395039711176
  29    0.00077336148680118
  30                     0
  31    -0.0028282976874678
  32    -0.0028282976874678
  33    -0.0028282999794843
  34    -0.0028282976874678
  35    -0.0028282976874678
  36    -0.0028282999794843
 Sym= Ag
 Ene=    -11.02875168
 Spin= Alpha
 Occup=    2.00000
   1      0.57260379209782
   2     0.025031034464034
   3    1.1786794905776e-19
   4    -0.0019249296881326
   5                     0
   6     -0.28630213177852
   7    -0.012515522614604
   8    -0.002528858770733
   9    -0.0024551839693395
  10                     0
  11     -0.28630213177852
  12    -0.012515522614604
  13    -0.002528858770733
  14    0.0024551839693395
  15                     0
  16      0.57260379209782
  17     0.025031034464034
  18    -1.1786794905776e-19
  19    0.0019249296881326
  20                     0
  21     -0.28630213177852
  22    -0.012515522614604
  23     0.002528858770733
  24    0.0024551839693395
  25                     0
  26     -0.28630213177852
  27    -0.012515522614604
  28     0.002528858770733
  29    -0.0024551839693395
  30                     0
  31    0.0020008402650238
  32    0.0020008402650238
  33    -0.0040016771970626
  34    0.0020008402650238
  35    0.0020008402650238
  36    -0.0040016771970626
 Sym= B1g
 Ene=    -11.02875168
 Spin= Alpha
 Occup=    2.00000
   1                     0
   2                     0
   3    0.0039152212666499
   4    2.3973815960782e-19
   5                     0
   6      0.49588956635336
   7     0.021677514732472
   8    0.00046489149420931
   9    -0.0025288592208319
  10                     0
  11     -0.49588956635336
  12    -0.021677514732472
  13    -0.00046489149420931
  14    -0.0025288592208319
  15                     0
  16                     0
  17                     0
  18    -0.0039152212666499
  19    -2.3973815960782e-19
  20                     0
  21      0.49588956635336
  22     0.021677514732472
  23    -0.00046489149420931
  24    0.0025288592208319
  25                     0
  26     -0.49588956635336
  27    -0.021677514732472
  28    0.00046489149420931
  29    0.0025288592208319
  30                     0
  31    -0.0034655551003036
  32    0.0034655551003036
  33                     0
  34    -0.0034655551003036
  35    0.0034655551003036
  36                     0
 Sym= B3u
 Ene=    -11.02860042
 Spin= Alpha
 Occup=    2.00000
   1      -0.4047362900461
   2    -0.021020909776537
   3    -1.5020179894931e-19
   4    0.0024529815299217
   5                     0
   6      0.40473647725156
   7     0.021020915216546
   8    0.0021243438085915
   9    -0.0012264912623708
  10                     0
  11     -0.40473647725156
  12    -0.021020915216546
  13    -0.0021243438085915
  14    -0.0012264912623708
  15                     0
  16       0.4047362900461
  17     0.021020909776537
  18    -1.5020179894931e-19
  19    0.0024529815299217
  20                     0
  21     -0.40473647725156
  22    -0.021020915216546
  23    0.0021243438085915
  24    -0.0012264912623708
  25                     0
  26      0.40473647725156
  27     0.021020915216546
  28    -0.0021243438085915
  29    -0.0012264912623708
  30                     0
  31    -0.0029270485943835
  32    0.0029270485943835
  33    -0.0029270473078944
  34    0.0029270485943835
  35    -0.0029270485943835
  36    0.0029270473078944
 Sym= Ag
 Ene=    -1.091741341
 Spin= Alpha
 Occup=    2.00000
   1     -0.10476796728367
   2      0.26441396331137
   3    3.7861055616372e-18
   4    -0.061831796143562
   5                     0
   6     -0.10476796642159
   7      0.26441396160326
   8     0.053547906315406
   9    -0.030915896715478
  10                     0
  11     -0.10476796642159
  12      0.26441396160326
  13     0.053547906315406
  14     0.030915896715478
  15                     0
  16     -0.10476796728367
  17      0.26441396331137
  18    -3.7861055616372e-18
  19     0.061831796143562
  20                     0
  21     -0.10476796642159
  22      0.26441396160326
  23    -0.053547906315406
  24     0.030915896715478
  25                     0
  26     -0.10476796642159
  27      0.26441396160326
  28    -0.053547906315406
  29    -0.030915896715478
  30                     0
  31     0.047177895214316
  32     0.047177895214316
  33     0.047177894761711
  34     0.047177895214316
  35     0.047177895214316
  36     0.047177894761711
 Sym= B3u
 Ene=     -0.95615898
 Spin= Alpha
 Occup=    2.00000
   1      -0.1465565598941
   2      0.39453843925641
   3    1.6674667467448e-18
   4    -0.027231798554583
   5                     0
   6    -0.073278280364227
   7      0.19726922077716
   8     0.068286145728453
   9     0.091043275166362
  10                     0
  11     0.073278280364227
  12     -0.19726922077716
  13    -0.068286145728453
  14     0.091043275166362
  15                     0
  16       0.1465565598941
  17     -0.39453843925641
  18    1.6674667467448e-18
  19    -0.027231798554583
  20                     0
  21     0.073278280364227
  22     -0.19726922077716
  23     0.068286145728453
  24     0.091043275166362
  25                     0
  26    -0.073278280364227
  27      0.19726922077716
  28    -0.068286145728453
  29     0.091043275166362
  30                     0
  31     0.054603081592308
  32    -0.054603081592308
  33      -0.1092061612671
  34    -0.054603081592308
  35     0.054603081592308
  36       0.1092061612671
 Sym= B2u
 Ene=   -0.9561589783
 Spin= Alpha
 Occup=    2.00000
   1                     0
   2                     0
   3     -0.13046830125541
   4    -7.9888793761313e-18
   5                     0
   6     -0.12692170371822
   7      0.34168031124707
   8    -0.012193226797276
   9    -0.068286143412244
  10                     0
  11     -0.12692170371822
  12      0.34168031124707
  13    -0.012193226797276
  14     0.068286143412244
  15                     0
  16                     0
  17                     0
  18     -0.13046830125541
  19    -7.9888793761313e-18
  20                     0
  21      0.12692170371822
  22     -0.34168031124707
  23    -0.012193226797276
  24    -0.068286143412244
  25                     0
  26      0.12692170371822
  27     -0.34168031124707
  28    -0.012193226797276
  29     0.068286143412244
  30                     0
  31     0.094575312135074
  32     0.094575312135074
  33                     0
  34    -0.094575312135074
  35    -0.094575312135074
  36                     0
 Sym= B1g
 Ene=   -0.7683443347
 Spin= Alpha
 Occup=    2.00000
   1                     0
   2                     0
   3     -0.23077497368157
   4    -1.4130891642122e-17
   5                     0
   6    -0.098994296753487
   7      0.29086092676834
   8    -0.0058588871845493
   9       0.1366206222474
  10                     0
  11     0.098994296753487
  12     -0.29086092676834
  13    0.0058588871845492
  14       0.1366206222474
  15                     0
  16                     0
  17                     0
  18      0.23077497368157
  19    1.4130891642122e-17
  20                     0
  21    -0.098994296753487
  22      0.29086092676834
  23    0.0058588871845493
  24      -0.1366206222474
  25                     0
  26     0.098994296753487
  27     -0.29086092676834
  28    -0.0058588871845492
  29      -0.1366206222474
  30                     0
  31      0.15461344160192
  32     -0.15461344160192
  33                     0
  34      0.15461344160192
  35     -0.15461344160192
  36                     0
 Sym= Ag
 Ene=   -0.7683443314
 Spin= Alpha
 Occup=    2.00000
   1     -0.11430876682593
   2      0.33585726682078
   3    -5.1886348778893e-18
   4     0.084736838107147
   5                     0
   6     0.057154383846157
   7       -0.167928635452
   8      0.13662062655045
   9      0.15189701768281
  10                     0
  11     0.057154383846157
  12       -0.167928635452
  13      0.13662062655045
  14     -0.15189701768281
  15                     0
  16     -0.11430876682593
  17      0.33585726682078
  18    5.1886348778893e-18
  19    -0.084736838107147
  20                     0
  21     0.057154383846157
  22       -0.167928635452
  23     -0.13662062655045
  24     -0.15189701768281
  25                     0
  26     0.057154383846157
  27       -0.167928635452
  28     -0.13662062655045
  29      0.15189701768281
  30                     0
  31    -0.089266115901407
  32    -0.089266115901407
  33      0.17853222147144
  34    -0.089266115901407
  35    -0.089266115901407
  36      0.17853222147144
 Sym= Ag
 Ene=   -0.6642452355
 Spin= Alpha
 Occup=    2.00000
   1    0.0088932049704838
   2    -0.036207743969874
   3    1.4349805684978e-17
   4     -0.23435011131322
   5                     0
   6    0.0088932025622475
   7    -0.036207735653189
   8       0.2029531461043
   9     -0.11717505910142
  10                     0
  11    0.0088932025622475
  12    -0.036207735653189
  13       0.2029531461043
  14      0.11717505910142
  15                     0
  16    0.0088932049704838
  17    -0.036207743969874
  18    -1.4349805684978e-17
  19      0.23435011131322
  20                     0
  21    0.0088932025622475
  22    -0.036207735653189
  23      -0.2029531461043
  24      0.11717505910142
  25                     0
  26    0.0088932025622475
  27    -0.036207735653189
  28      -0.2029531461043
  29     -0.11717505910142
  30                     0
  31     -0.17518357398654
  32     -0.17518357398654
  33     -0.17518357762535
  34     -0.17518357398654
  35     -0.17518357398654
  36     -0.17518357762535
 Sym= B3u
 Ene=   -0.5958106842
 Spin= Alpha
 Occup=    2.00000
   1     0.065314381545241
   2     -0.21860138512419
   3    1.0054352931551e-17
   4     -0.16420004426667
   5                     0
   6    -0.065314379841758
   7      0.21860137960167
   8     -0.14220143112412
   9     0.082100028967531
  10                     0
  11     0.065314379841758
  12     -0.21860137960167
  13      0.14220143112412
  14     0.082100028967531
  15                     0
  16    -0.065314381545241
  17      0.21860138512419
  18    1.0054352931551e-17
  19     -0.16420004426667
  20                     0
  21     0.065314379841758
  22     -0.21860137960167
  23     -0.14220143112412
  24     0.082100028967531
  25                     0
  26    -0.065314379841758
  27      0.21860137960167
  28      0.14220143112412
  29     0.082100028967531
  30                     0
  31      0.23183072461882
  32     -0.23183072461882
  33      0.23183070802143
  34     -0.23183072461882
  35      0.23183072461882
  36     -0.23183070802143
 Sym= B2u
 Ene=   -0.5545759344
 Spin= Alpha
 Occup=    2.00000
   1                     0
   2                     0
   3      0.33213202544693
   4    2.0337221092896e-17
   5                     0
   6    2.2552977730759e-09
   7    -5.7321659357792e-09
   8     -0.16606603420552
   9     -0.28763474071313
  10                     0
  11    2.2552977730759e-09
  12    -5.7321659357792e-09
  13     -0.16606603420552
  14      0.28763474071313
  15                     0
  16                     0
  17                     0
  18      0.33213202544693
  19    2.0337221092896e-17
  20                     0
  21    -2.2552977730759e-09
  22    5.7321659357792e-09
  23     -0.16606603420552
  24     -0.28763474071313
  25                     0
  26    -2.2552977730759e-09
  27    5.7321659357792e-09
  28     -0.16606603420552
  29      0.28763474071313
  30                     0
  31    2.7019456507082e-08
  32    2.7019456507082e-08
  33                     0
  34    -2.7019456507082e-08
  35    -2.7019456507082e-08
  36                     0
 Sym= B2u
 Ene=   -0.5354839664
 Spin= Alpha
 Occup=    2.00000
   1                     0
   2                     0
   3     -0.10221536272916
   4    -6.2588858394976e-18
   5                     0
   6    -0.023265535921716
   7     0.073599196541456
   8        0.251467591495
   9     -0.20419901150167
  10                     0
  11    -0.023265535921716
  12     0.073599196541456
  13        0.251467591495
  14      0.20419901150167
  15                     0
  16                     0
  17                     0
  18     -0.10221536272916
  19    -6.2588858394976e-18
  20                     0
  21     0.023265535921716
  22    -0.073599196541456
  23        0.251467591495
  24     -0.20419901150167
  25                     0
  26     0.023265535921716
  27    -0.073599196541456
  28        0.251467591495
  29      0.20419901150167
  30                     0
  31      -0.2446064610488
  32      -0.2446064610488
  33                     0
  34       0.2446064610488
  35       0.2446064610488
  36                     0
 Sym= B3u
 Ene=   -0.5354839661
 Spin= Alpha
 Occup=    2.00000
   1    -0.026864723917497
   2     0.084985019774337
   3    2.2616896634864e-17
   4     -0.36936195237044
   5                     0
   6    -0.013432365844028
   7     0.042492523752232
   8      0.20419897380603
   9     -0.01567893534811
  10                     0
  11     0.013432365844028
  12    -0.042492523752232
  13     -0.20419897380603
  14     -0.01567893534811
  15                     0
  16     0.026864723917497
  17    -0.084985019774337
  18    2.2616896634864e-17
  19     -0.36936195237044
  20                     0
  21     0.013432365844028
  22    -0.042492523752232
  23      0.20419897380603
  24     -0.01567893534811
  25                     0
  26    -0.013432365844028
  27     0.042492523752232
  28     -0.20419897380603
  29     -0.01567893534811
  30                     0
  31     -0.14122359612148
  32      0.14122359612148
  33       0.2824472232093
  34      0.14122359612148
  35     -0.14122359612148
  36      -0.2824472232093
 Sym= B1u
 Ene=   -0.4575853843
 Spin= Alpha
 Occup=    2.00000
   1                     0
   2                     0
   3                     0
   4                     0
   5      0.33399698496275
   6                     0
   7                     0
   8                     0
   9                     0
  10      0.33399698265123
  11                     0
  12                     0
  13                     0
  14                     0
  15      0.33399698265123
  16                     0
  17                     0
  18                     0
  19                     0
  20      0.33399698496275
  21                     0
  22                     0
  23                     0
  24                     0
  25      0.33399698265123
  26                     0
  27                     0
  28                     0
  29                     0
  30      0.33399698265123
  31                     0
  32                     0
  33                     0
  34                     0
  35                     0
  36                     0
 Sym= B1g
 Ene=   -0.4338302632
 Spin= Alpha
 Occup=    2.00000
   1                     0
   2                     0
   3     -0.33436086512898
   4    -2.0473698162017e-17
   5                     0
   6    -0.0068986724089656
   7     0.015345892422754
   8      0.29522685726998
   9      0.02259403021626
  10                     0
  11    0.0068986724089656
  12    -0.015345892422754
  13     -0.29522685726998
  14      0.02259403021626
  15                     0
  16                     0
  17                     0
  18      0.33436086512898
  19    2.0473698162017e-17
  20                     0
  21    -0.0068986724089656
  22     0.015345892422754
  23     -0.29522685726998
  24     -0.02259403021626
  25                     0
  26    0.0068986724089656
  27    -0.015345892422754
  28      0.29522685726998
  29     -0.02259403021626
  30                     0
  31     -0.25768510285122
  32      0.25768510285122
  33                     0
  34     -0.25768510285122
  35      0.25768510285122
  36                     0
 Sym= Ag
 Ene=   -0.4338302562
 Spin= Alpha
 Occup=    2.00000
   1    0.0079659010764668
   2    -0.017719910770284
   3    -1.7278675661093e-17
   4      0.28218218792754
   5                     0
   6    -0.0039829504328189
   7    0.0088599566728334
   8    -0.022594031595512
   9     -0.32131619686456
  10                     0
  11    -0.0039829504328189
  12    0.0088599566728334
  13    -0.022594031595512
  14      0.32131619686456
  15                     0
  16    0.0079659010764668
  17    -0.017719910770284
  18    1.7278675661093e-17
  19     -0.28218218792754
  20                     0
  21    -0.0039829504328189
  22    0.0088599566728334
  23     0.022594031595512
  24      0.32131619686456
  25                     0
  26    -0.0039829504328189
  27    0.0088599566728334
  28     0.022594031595512
  29     -0.32131619686456
  30                     0
  31     -0.14877456324235
  32     -0.14877456324235
  33      0.29754912984379
  34     -0.14877456324235
  35     -0.14877456324235
  36      0.29754912984379
 Sym= B2g
 Ene=   -0.2807650559
 Spin= Alpha
 Occup=    2.00000
   1                     0
   2                     0
   3                     0
   4                     0
   5      0.53156217057709
   6                     0
   7                     0
   8                     0
   9                     0
  10      0.26578108659155
  11                     0
  12                     0
  13                     0
  14                     0
  15     -0.26578108659155
  16                     0
  17                     0
  18                     0
  19                     0
  20     -0.53156217057709
  21                     0
  22                     0
  23                     0
  24                     0
  25     -0.26578108659155
  26                     0
  27                     0
  28                     0
  29                     0
  30      0.26578108659155
  31                     0
  32                     0
  33                     0
  34                     0
  35                     0
  36                     0
 Sym= B3g
 Ene=   -0.2807650521
 Spin= Alpha
 Occup=    2.00000
   1                     0
   2                     0
   3                     0
   4                     0
   5                     0
   6                     0
   7                     0
   8                     0
   9                     0
  10      0.46034634517746
  11                     0
  12                     0
  13                     0
  14                     0
  15      0.46034634517746
  16                     0
  17                     0
  18                     0
  19                     0
  20                     0
  21                     0
  22                     0
  23                     0
  24                     0
  25     -0.46034634517746
  26                     0
  27                     0
  28                     0
  29                     0
  30     -0.46034634517746
  31                     0
  32                     0
  33                     0
  34                     0
  35                     0
  36                     0
 Sym= Au
 Ene=    0.2691418686
 Spin= Alpha
 Occup=    0.00000
   1                     0
   2                     0
   3                     0
   4                     0
   5                     0
   6                     0
   7                     0
   8                     0
   9                     0
  10      0.57037600304831
  11                     0
  12                     0
  13                     0
  14                     0
  15     -0.57037600304831
  16                     0
  17                     0
  18                     0
  19                     0
  20                     0
  21                     0
  22                     0
  23                     0
  24                     0
  25      0.57037600304831
  26                     0
  27                     0
  28                     0
  29                     0
  30     -0.57037600304831
  31                     0
  32                     0
  33                     0
  34                     0
  35                     0
  36                     0
 Sym= B1u
 Ene=    0.2691418741
 Spin= Alpha
 Occup=    0.00000
   1                     0
   2                     0
   3                     0
   4                     0
   5      0.65861347859489
   6                     0
   7                     0
   8                     0
   9                     0
  10     -0.32930674140186
  11                     0
  12                     0
  13                     0
  14                     0
  15     -0.32930674140186
  16                     0
  17                     0
  18                     0
  19                     0
  20      0.65861347859489
  21                     0
  22                     0
  23                     0
  24                     0
  25     -0.32930674140186
  26                     0
  27                     0
  28                     0
  29                     0
  30     -0.32930674140186
  31                     0
  32                     0
  33                     0
  34                     0
  35                     0
  36                     0
 Sym= B2g
 Ene=    0.5050131204
 Spin= Alpha
 Occup=    0.00000
   1                     0
   2                     0
   3                     0
   4                     0
   5     -0.52285685566902
   6                     0
   7                     0
   8                     0
   9                     0
  10      0.52285685244726
  11                     0
  12                     0
  13                     0
  14                     0
  15     -0.52285685244726
  16                     0
  17                     0
  18                     0
  19                     0
  20      0.52285685566902
  21                     0
  22                     0
  23                     0
  24                     0
  25     -0.52285685244726
  26                     0
  27                     0
  28                     0
  29                     0
  30      0.52285685244726
  31                     0
  32                     0
  33                     0
  34                     0
  35                     0
  36                     0
 Sym= Ag
 Ene=    0.5825451273
 Spin= Alpha
 Occup=    0.00000
   1     0.052701235408722
   2     -0.33609302869271
   3    1.9378816046615e-17
   4     -0.31648008323882
   5                     0
   6     0.052701237438645
   7     -0.33609304347744
   8      0.27407976944482
   9     -0.15824003248428
  10                     0
  11     0.052701237438645
  12     -0.33609304347744
  13      0.27407976944482
  14      0.15824003248428
  15                     0
  16     0.052701235408722
  17     -0.33609302869271
  18    -1.9378816046615e-17