[Molden Format]
made by pyscf v[2.8.0]
[Atoms] (AU)
C   1   6     0.00000000000000     2.63144965668319     0.00000000000000
C   2   6    -2.27890225639802     1.31572483779022     0.00000000000000
C   3   6    -2.27890225639802    -1.31572483779022     0.00000000000000
C   4   6     0.00000000000000    -2.63144965668319     0.00000000000000
C   5   6     2.27890225639802    -1.31572483779022     0.00000000000000
C   6   6     2.27890225639802     1.31572483779022     0.00000000000000
H   7   1    -4.04725813168810     2.33668556484178     0.00000000000000
H   8   1    -4.04725813168810    -2.33668556484178     0.00000000000000
H   9   1     0.00000000000000    -4.67337114858083     0.00000000000000
H   10   1     4.04725813168810    -2.33668556484178     0.00000000000000
H   11   1     4.04725813168810     2.33668556484178     0.00000000000000
H   12   1     0.00000000000000     4.67337114858083     0.00000000000000
[GTO]
1 0
 s    3 1.00
             71.616837    0.15432897000916
             13.045096    0.53532814003178
             3.5305122     0.4446345400264
 s    3 1.00
             2.9412494  -0.099967230075964
             0.6834831    0.39951283030359
             0.2222899    0.70011547053201
 p    3 1.00
             2.9412494    0.15591627210511
             0.6834831    0.60768372820466
             0.2222899    0.39195739529202

2 0
 s    3 1.00
             71.616837    0.15432897000916
             13.045096    0.53532814003178
             3.5305122     0.4446345400264
 s    3 1.00
             2.9412494  -0.099967230075964
             0.6834831    0.39951283030359
             0.2222899    0.70011547053201
 p    3 1.00
             2.9412494    0.15591627210511
             0.6834831    0.60768372820466
             0.2222899    0.39195739529202

3 0
 s    3 1.00
             71.616837    0.15432897000916
             13.045096    0.53532814003178
             3.5305122     0.4446345400264
 s    3 1.00
             2.9412494  -0.099967230075964
             0.6834831    0.39951283030359
             0.2222899    0.70011547053201
 p    3 1.00
             2.9412494    0.15591627210511
             0.6834831    0.60768372820466
             0.2222899    0.39195739529202

4 0
 s    3 1.00
             71.616837    0.15432897000916
             13.045096    0.53532814003178
             3.5305122     0.4446345400264
 s    3 1.00
             2.9412494  -0.099967230075964
             0.6834831    0.39951283030359
             0.2222899    0.70011547053201
 p    3 1.00
             2.9412494    0.15591627210511
             0.6834831    0.60768372820466
             0.2222899    0.39195739529202

5 0
 s    3 1.00
             71.616837    0.15432897000916
             13.045096    0.53532814003178
             3.5305122     0.4446345400264
 s    3 1.00
             2.9412494  -0.099967230075964
             0.6834831    0.39951283030359
             0.2222899    0.70011547053201
 p    3 1.00
             2.9412494    0.15591627210511
             0.6834831    0.60768372820466
             0.2222899    0.39195739529202

6 0
 s    3 1.00
             71.616837    0.15432897000916
             13.045096    0.53532814003178
             3.5305122     0.4446345400264
 s    3 1.00
             2.9412494  -0.099967230075964
             0.6834831    0.39951283030359
             0.2222899    0.70011547053201
 p    3 1.00
             2.9412494    0.15591627210511
             0.6834831    0.60768372820466
             0.2222899    0.39195739529202

7 0
 s    3 1.00
            3.42525091    0.15432897070298
            0.62391373    0.53532814243848
             0.1688554    0.44463454202535

8 0
 s    3 1.00
            3.42525091    0.15432897070298
            0.62391373    0.53532814243848
             0.1688554    0.44463454202535

9 0
 s    3 1.00
            3.42525091    0.15432897070298
            0.62391373    0.53532814243848
             0.1688554    0.44463454202535

10 0
 s    3 1.00
            3.42525091    0.15432897070298
            0.62391373    0.53532814243848
             0.1688554    0.44463454202535

11 0
 s    3 1.00
            3.42525091    0.15432897070298
            0.62391373    0.53532814243848
             0.1688554    0.44463454202535

12 0
 s    3 1.00
            3.42525091    0.15432897070298
            0.62391373    0.53532814243848
             0.1688554    0.44463454202535

[5d]
[7f]
[9g]

[MO]
 Sym= A
 Ene=    -1.086771647
 Spin= Alpha
 Occup=    2.00000
   1     -0.10331575054243
   2      0.26426738418324
   3    4.9945839965491e-17
   4    -0.064662427534302
   5                     0
   6     -0.10331574967015
   7       0.2642673825642
   8     0.055999305001542
   9    -0.032331212273893
  10                     0
  11     -0.10331574967015
  12       0.2642673825642
  13     0.055999305001542
  14     0.032331212273893
  15                     0
  16     -0.10331575054243
  17      0.26426738418324
  18    1.7719097995444e-16
  19     0.064662427534301
  20                     0
  21     -0.10331574967015
  22       0.2642673825642
  23    -0.055999305001542
  24     0.032331212273893
  25                     0
  26     -0.10331574967015
  27       0.2642673825642
  28    -0.055999305001542
  29    -0.032331212273893
  30                     0
  31     0.042411477532249
  32     0.042411477532249
  33     0.042411477207851
  34      0.04241147753225
  35      0.04241147753225
  36     0.042411477207851
 Sym= A
 Ene=   -0.9524231617
 Spin= Alpha
 Occup=    2.00000
   1     -0.14470430369087
   2      0.39294370223638
   3    -3.9879614491838e-17
   4    -0.036032268480379
   5                     0
   6    -0.072352152233655
   7       0.1964718522674
   8     0.075155096383855
   9       0.0941401766246
  10                     0
  11     0.072352152233655
  12      -0.1964718522674
  13    -0.075155096383854
  14       0.0941401766246
  15                     0
  16      0.14470430369087
  17     -0.39294370223638
  18    -1.5555719751815e-16
  19    -0.036032268480379
  20                     0
  21     0.072352152233655
  22      -0.1964718522674
  23     0.075155096383854
  24       0.0941401766246
  25                     0
  26    -0.072352152233655
  27       0.1964718522674
  28    -0.075155096383855
  29       0.0941401766246
  30                     0
  31     0.050942349174669
  32    -0.050942349174669
  33     -0.10188469659519
  34    -0.050942349174669
  35     0.050942349174669
  36      0.10188469659519
 Sym= A
 Ene=   -0.9524231601
 Spin= Alpha
 Occup=    2.00000
   1    1.4826774166442e-17
   2    -7.462186993667e-17
   3     -0.13753099342152
   4    -4.0166134784585e-18
   5                     0
   6     -0.12531760280761
   7      0.34029922865267
   8    -0.0073585473415321
   9    -0.075155093820033
  10                     0
  11     -0.12531760280761
  12      0.34029922865267
  13    -0.0073585473415321
  14     0.075155093820033
  15                     0
  16    5.2189909287652e-18
  17    -6.8150390677318e-17
  18     -0.13753099342152
  19    -3.0260057584479e-17
  20                     0
  21      0.12531760280761
  22     -0.34029922865267
  23    -0.0073585473415321
  24    -0.075155093820033
  25                     0
  26      0.12531760280761
  27     -0.34029922865267
  28    -0.0073585473415321
  29     0.075155093820033
  30                     0
  31     0.088234737525219
  32     0.088234737525219
  33    2.6915070805309e-18
  34    -0.088234737525219
  35    -0.088234737525219
  36    1.0733418179759e-17
 Sym= A
 Ene=   -0.7651050681
 Spin= Alpha
 Occup=    2.00000
   1    1.347409585085e-17
   2    -1.4040025048812e-16
   3     -0.24431692155596
   4    2.8496723772253e-17
   5                     0
   6    -0.097481632684156
   7      0.28899281349354
   8    0.0043300797406427
   9      0.13855646643264
  10                     0
  11     0.097481632684156
  12     -0.28899281349354
  13    -0.0043300797406427
  14      0.13855646643264
  15                     0
  16    -3.4793272858434e-18
  17    1.7037597669329e-17
  18      0.24431692155596
  19    3.7825071980599e-17
  20                     0
  21    -0.097481632684156
  22      0.28899281349354
  23    -0.0043300797406428
  24     -0.13855646643264
  25                     0
  26     0.097481632684156
  27     -0.28899281349354
  28    0.0043300797406426
  29     -0.13855646643264
  30                     0
  31      0.14360699830581
  32     -0.14360699830581
  33    9.5698029529987e-18
  34      0.14360699830581
  35     -0.14360699830581
  36    2.9723311882408e-17
 Sym= A
 Ene=    -0.765105065
 Spin= Alpha
 Occup=    2.00000
   1     -0.11256209275908
   2      0.33370015512253
   3    -2.134568569481e-17
   4     0.075665531841336
   5                     0
   6     0.056281046912085
   7     -0.16685008004744
   8      0.13855647098342
   9       0.1643213049234
  10                     0
  11     0.056281046912085
  12     -0.16685008004744
  13      0.13855647098342
  14      -0.1643213049234
  15                     0
  16     -0.11256209275908
  17      0.33370015512253
  18    2.6784683016369e-17
  19    -0.075665531841336
  20                     0
  21     0.056281046912085
  22     -0.16685008004744
  23     -0.13855647098342
  24      -0.1643213049234
  25                     0
  26     0.056281046912085
  27     -0.16685008004744
  28     -0.13855647098342
  29       0.1643213049234
  30                     0
  31    -0.082911542727764
  32    -0.082911542727765
  33      0.16582307579867
  34    -0.082911542727764
  35    -0.082911542727765
  36      0.16582307579867
 Sym= A
 Ene=   -0.6633493346
 Spin= Alpha
 Occup=    2.00000
   1     0.011014172029225
   2    -0.043821090947473
   3    -6.047315811435e-17
   4      -0.2358659262711
   5                     0
   6     0.011014169727007
   7    -0.043821082896748
   8      0.20426588107344
   9     -0.11793296719281
  10                     0
  11     0.011014169727007
  12    -0.043821082896748
  13      0.20426588107344
  14      0.11793296719281
  15                     0
  16     0.011014172029225
  17    -0.043821090947473
  18    -9.8897291137364e-17
  19       0.2358659262711
  20                     0
  21     0.011014169727007
  22    -0.043821082896748
  23     -0.20426588107344
  24      0.11793296719281
  25                     0
  26     0.011014169727007
  27    -0.043821082896748
  28     -0.20426588107344
  29     -0.11793296719281
  30                     0
  31     -0.17129198570885
  32     -0.17129198570885
  33     -0.17129198899994
  34     -0.17129198570885
  35     -0.17129198570885
  36     -0.17129198899994
 Sym= A
 Ene=    -0.594371482
 Spin= Alpha
 Occup=    2.00000
   1     0.063761270787061
   2     -0.21358982543558
   3    6.8162471614436e-18
   4     -0.17354833033821
   5                     0
   6    -0.063761269130266
   7      0.21358982039425
   8     -0.15029729080987
   9     0.086774174416252
  10                     0
  11     0.063761269130266
  12     -0.21358982039425
  13      0.15029729080987
  14     0.086774174416252
  15                     0
  16    -0.063761270787061
  17      0.21358982543558
  18    -4.5327925104625e-17
  19     -0.17354833033821
  20                     0
  21     0.063761269130266
  22     -0.21358982039425
  23     -0.15029729080987
  24     0.086774174416252
  25                     0
  26    -0.063761269130266
  27      0.21358982039425
  28      0.15029729080987
  29     0.086774174416252
  30                     0
  31      0.22672071910492
  32     -0.22672071910492
  33      0.22672069829055
  34     -0.22672071910492
  35      0.22672071910492
  36     -0.22672069829055
 Sym= A
 Ene=   -0.5522625565
 Spin= Alpha
 Occup=    2.00000
   1    -5.5651261196071e-18
   2    6.7841279651042e-17
   3      0.33143853166192
   4    2.3415230701723e-17
   5                     0
   6    8.950909253351e-10
   7    -1.2799604984215e-09
   8     -0.16571927927322
   9      -0.2870341693734
  10                     0
  11    8.9509093840376e-10
  12    -1.2799606504803e-09
  13     -0.16571927927322
  14       0.2870341693734
  15                     0
  16    1.3917309143374e-17
  17    -8.5187988346647e-17
  18      0.33143853166192
  19    3.3096937983024e-18
  20                     0
  21    -8.9509092886959e-10
  22    1.2799606071064e-09
  23     -0.16571927927322
  24      -0.2870341693734
  25                     0
  26    -8.9509095146338e-10
  27    1.2799605906815e-09
  28     -0.16571927927322
  29       0.2870341693734
  30                     0
  31    1.6454972290126e-08
  32    1.6454972216647e-08
  33    3.2772205928057e-17
  34    -1.6454972217888e-08
  35    -1.6454972300017e-08
  36    6.2400414190092e-18
 Sym= A
 Ene=   -0.5342267824
 Spin= Alpha
 Occup=    2.00000
   1    -4.048818343344e-18
   2    -1.0750677791123e-17
   3     -0.10106615345702
   4    2.5404519674476e-17
   5                     0
   6    -0.018945618119892
   7       0.0598569481354
   8      0.25354323145857
   9     -0.20473386269515
  10                     0
  11    -0.018945618119892
  12       0.0598569481354
  13      0.25354323145857
  14      0.20473386269515
  15                     0
  16    1.043798185753e-17
  17    -7.240979009465e-17
  18     -0.10106615345702
  19                     0
  20                     0
  21     0.018945618119892
  22      -0.0598569481354
  23      0.25354323145857
  24     -0.20473386269515
  25                     0
  26     0.018945618119892
  27      -0.0598569481354
  28      0.25354323145857
  29      0.20473386269515
  30                     0
  31     -0.24183503259157
  32     -0.24183503259157
  33    2.8709408858996e-17
  34      0.24183503259157
  35      0.24183503259157
  36    -2.8897664330119e-17
 Sym= A
 Ene=    -0.534226782
 Spin= Alpha
 Occup=    2.00000
   1    -0.021876511852132
   2     0.069116836028813
   3    4.9026551661888e-17
   4     -0.37174639069331
   5                     0
   6    -0.010938260801066
   7     0.034558435230877
   8      0.20473383496696
   9    -0.017136960591632
  10                     0
  11     0.010938260801066
  12    -0.034558435230877
  13     -0.20473383496696
  14    -0.017136960591632
  15                     0
  16     0.021876511852132
  17    -0.069116836028813
  18    2.4724322784341e-17
  19     -0.37174639069331
  20                     0
  21     0.010938260801066
  22    -0.034558435230877
  23      0.20473383496696
  24    -0.017136960591632
  25                     0
  26    -0.010938260801066
  27     0.034558435230877
  28     -0.20473383496696
  29    -0.017136960591632
  30                     0
  31     -0.13962350864458
  32      0.13962350864458
  33      0.27924705605997
  34      0.13962350864458
  35     -0.13962350864458
  36     -0.27924705605997
 Sym= A
 Ene=   -0.4437534925
 Spin= Alpha
 Occup=    2.00000
   1                     0
   2                     0
   3                     0
   4                     0
   5      0.32891018092971
   6                     0
   7                     0
   8                     0
   9                     0
  10      0.32891017883443
  11                     0
  12                     0
  13                     0
  14                     0
  15      0.32891017883443
  16                     0
  17                     0
  18                     0
  19                     0
  20      0.32891018092971
  21                     0
  22                     0
  23                     0
  24                     0
  25      0.32891017883443
  26                     0
  27                     0
  28                     0
  29                     0
  30      0.32891017883443
  31                     0
  32                     0
  33                     0
  34                     0
  35                     0
  36                     0
 Sym= A
 Ene=   -0.4326575463
 Spin= Alpha
 Occup=    2.00000
   1    7.5064246084148e-18
   2    -9.48987347348e-18
   3      -0.3235583955471
   4    -3.4891062149985e-17
   5                     0
   6    -0.0027068934792003
   7    0.0023556822100818
   8      0.29975647344552
   9      0.01374204624661
  10                     0
  11    0.0027068934792002
  12    -0.0023556822100815
  13     -0.29975647344552
  14      0.01374204624661
  15                     0
  16    2.0875963715061e-17
  17    -1.1926318368531e-16
  18       0.3235583955471
  19    -4.5390086376719e-17
  20                     0
  21    -0.0027068934792002
  22    0.0023556822100816
  23     -0.29975647344552
  24     -0.01374204624661
  25                     0
  26    0.0027068934792003
  27    -0.0023556822100818
  28      0.29975647344552
  29     -0.01374204624661
  30                     0
  31     -0.25767034606515
  32      0.25767034606515
  33    -1.0766028322124e-17
  34     -0.25767034606515
  35      0.25767034606515
  36    1.1559065732048e-17
 Sym= A
 Ene=   -0.4326575393
 Spin= Alpha
 Occup=    2.00000
   1    0.0031256518743445
   2    -0.0027201089024652
   3    -8.3735316442803e-17
   4      0.29182249875119
   5                     0
   6    -0.0015628258587192
   7    0.0013600557498284
   8    -0.013742048133221
   9     -0.31562442240953
  10                     0
  11    -0.0015628258587193
  12    0.0013600557498286
  13    -0.013742048133221
  14      0.31562442240953
  15                     0
  16    0.0031256518743445
  17    -0.0027201089024652
  18    -6.5931527424909e-17
  19     -0.29182249875119
  20                     0
  21    -0.0015628258587193
  22    0.0013600557498287
  23     0.013742048133221
  24      0.31562442240953
  25                     0
  26    -0.0015628258587193
  27    0.0013600557498288
  28     0.013742048133221
  29     -0.31562442240953
  30                     0
  31     -0.14876604361156
  32     -0.14876604361156
  33      0.29753209100879
  34     -0.14876604361156
  35     -0.14876604361156
  36      0.29753209100879
 Sym= A
 Ene=   -0.2684664936
 Spin= Alpha
 Occup=    2.00000
   1                     0
   2                     0
   3                     0
   4                     0
   5      0.51978950312316
   6                     0
   7                     0
   8                     0
   9                     0
  10       0.2598947525692
  11                     0
  12                     0
  13                     0
  14                     0
  15      -0.2598947525692
  16                     0
  17                     0
  18                     0
  19                     0
  20     -0.51978950312316
  21                     0
  22                     0
  23                     0
  24                     0
  25      -0.2598947525692
  26                     0
  27                     0
  28                     0
  29                     0
  30       0.2598947525692
  31                     0
  32                     0
  33                     0
  34                     0
  35                     0
  36                     0
 Sym= A
 Ene=   -0.2684664897
 Spin= Alpha
 Occup=    2.00000
   1                     0
   2                     0
   3                     0
   4                     0
   5    -2.1154583897211e-18
   6                     0
   7                     0
   8                     0
   9                     0
  10      0.45015091564961
  11                     0
  12                     0
  13                     0
  14                     0
  15      0.45015091564961
  16                     0
  17                     0
  18                     0
  19                     0
  20                     0
  21                     0
  22                     0
  23                     0
  24                     0
  25     -0.45015091564961
  26                     0
  27                     0
  28                     0
  29                     0
  30     -0.45015091564961
  31                     0
  32                     0
  33                     0
  34                     0
  35                     0
  36                     0
